BEGIN_CFG
 Size
    11
 Supercell
         1.821605     -1.051704      2.838187
         0.000000      2.103409      2.838187
        -1.821605     -1.051704      2.838187
 AtomData:  id type       cartes_x      cartes_y      cartes_z
             1    0       0.000000      0.000000      4.257281
             2    1      -0.000000      0.000000      2.192877
             3    1      -0.000000     -0.000000      6.321684
             4    1       0.000000      0.000000      0.890919
             5    1      -0.000000     -0.000000      7.623642
             6    1       0.930740      0.537363      6.126909
             7    1      -0.000000     -1.074726      6.126909
             8    1      -0.930740      0.537363      6.126909
             9    1       0.000000      1.074726      2.387652
            10    1       0.930740     -0.537363      2.387652
            11    1      -0.930740     -0.537363      2.387652
 Feature   selected_eqn_inds	0
END_CFG

BEGIN_CFG
 Size
    11
 Supercell
         1.821605     -1.051704      2.838187
         0.000000      2.103409      2.838187
        -1.821605     -1.051704      2.838187
 AtomData:  id type       cartes_x      cartes_y      cartes_z
             1    0       0.003541      0.010253      4.231420
             2    1      -0.012864     -0.031167      2.222672
             3    1      -0.010673     -0.026448      6.276625
             4    1      -0.012697      0.031060      0.841357
             5    1      -0.033064     -0.036726      7.669465
             6    1       0.970301      0.564146      6.140041
             7    1      -0.004012     -1.090526      6.121017
             8    1      -0.948046      0.555477      6.119105
             9    1      -0.036381      1.072725      2.344972
            10    1       0.959104     -0.541510      2.351792
            11    1      -0.948852     -0.563936      2.403103
 Feature   selected_eqn_inds	0
END_CFG

BEGIN_CFG
 Size
    11
 Supercell
         1.821605     -1.051704      2.838187
         0.000000      2.103409      2.838187
        -1.821605     -1.051704      2.838187
 AtomData:  id type       cartes_x      cartes_y      cartes_z
             1    0       0.015289      0.041639      4.209872
             2    1       0.045384      0.026760      2.224951
             3    1       0.000598      0.008863      6.282381
             4    1      -0.004827      0.023597      0.937497
             5    1      -0.010016     -0.013067      7.646646
             6    1       0.915042      0.517023      6.140791
             7    1      -0.039245     -1.043880      6.145852
             8    1      -0.901821      0.508353      6.092034
             9    1       0.039163      1.092014      2.357727
            10    1       0.885507     -0.488244      2.364411
            11    1      -0.881944     -0.583173      2.389508
 Feature   selected_eqn_inds	0
END_CFG

BEGIN_CFG
 Size
    11
 Supercell
         1.821605     -1.051704      2.838187
         0.000000      2.103409      2.838187
        -1.821605     -1.051704      2.838187
 AtomData:  id type       cartes_x      cartes_y      cartes_z
             1    0      -0.032667      0.028801      4.302671
             2    1      -0.045511     -0.044916      2.171283
             3    1       0.012239      0.020222      6.338867
             4    1       0.019080      0.024255      0.904366
             5    1       0.031943     -0.041680      7.657389
             6    1       0.944565      0.552092      6.082487
             7    1      -0.031354     -1.080061      6.154862
             8    1      -0.906993      0.513993      6.091033
             9    1       0.030616      1.099673      2.342035
            10    1       0.923269     -0.551415      2.403125
            11    1      -0.902003     -0.560749      2.354057
 Feature   selected_eqn_inds	0
END_CFG

BEGIN_CFG
 Size
    11
 Supercell
         1.821605     -1.051704      2.838187
         0.000000      2.103409      2.838187
        -1.821605     -1.051704      2.838187
 AtomData:  id type       cartes_x      cartes_y      cartes_z
             1    0      -0.039281     -0.007267      4.227233
             2    1       0.034842      0.021698      2.242193
             3    1       0.014290     -0.035539      6.358872
             4    1      -0.029156      0.038863      0.908263
             5    1       0.037437      0.015919      7.669421
             6    1       0.938616      0.526919      6.089871
             7    1      -0.029989     -1.121445      6.112084
             8    1      -0.905786      0.564300      6.084886
             9    1       0.048635      1.115368      2.363691
            10    1       0.913048     -0.548651      2.350196
            11    1      -0.934361     -0.555106      2.346440
 Feature   selected_eqn_inds	0
END_CFG

BEGIN_CFG
 Size
    11
 Supercell
         1.821605     -1.051704      2.838187
         0.000000      2.103409      2.838187
        -1.821605     -1.051704      2.838187
 AtomData:  id type       cartes_x      cartes_y      cartes_z
             1    0      -0.010214      0.049289      4.284551
             2    1      -0.028497      0.040828      2.213516
             3    1       0.028981     -0.049854      6.295767
             4    1      -0.038331      0.035081      0.905592
             5    1       0.042437      0.023392      7.576540
             6    1       0.968530      0.557128      6.164907
             7    1       0.048302     -1.035175      6.105016
             8    1      -0.915513      0.511671      6.116883
             9    1      -0.004686      1.048467      2.436667
            10    1       0.881061     -0.581832      2.416945
            11    1      -0.973068     -0.542574      2.344305
 Feature   selected_eqn_inds	0
END_CFG

BEGIN_CFG
 Size
    11
 Supercell
         1.821605     -1.051704      2.838187
         0.000000      2.103409      2.838187
        -1.821605     -1.051704      2.838187
 AtomData:  id type       cartes_x      cartes_y      cartes_z
             1    0       0.030328      0.046735      4.208180
             2    1      -0.042382     -0.026195      2.199275
             3    1       0.009096      0.003848      6.357092
             4    1       0.019803     -0.001444      0.903265
             5    1      -0.024009      0.020468      7.583027
             6    1       0.881930      0.532604      6.165510
             7    1      -0.027067     -1.115525      6.137813
             8    1      -0.909582      0.553919      6.161535
             9    1       0.028715      1.041185      2.373305
            10    1       0.948689     -0.519865      2.422427
            11    1      -0.967868     -0.542079      2.379442
 Feature   selected_eqn_inds	0
END_CFG

BEGIN_CFG
 Size
    11
 Supercell
         1.821605     -1.051704      2.838187
         0.000000      2.103409      2.838187
        -1.821605     -1.051704      2.838187
 AtomData:  id type       cartes_x      cartes_y      cartes_z
             1    0      -0.045716     -0.011772      4.302768
             2    1       0.021738     -0.047982      2.240632
             3    1       0.042579     -0.021877      6.350753
             4    1       0.025448      0.001606      0.862564
             5    1       0.033539     -0.033793      7.629710
             6    1       0.969217      0.555081      6.150724
             7    1       0.018635     -1.026237      6.123302
             8    1      -0.976261      0.561888      6.172288
             9    1       0.008599      1.122491      2.391637
            10    1       0.904161     -0.518127      2.424460
            11    1      -0.924655     -0.499256      2.346051
 Feature   selected_eqn_inds	0
END_CFG

BEGIN_CFG
 Size
    11
 Supercell
         1.821605     -1.051704      2.838187
         0.000000      2.103409      2.838187
        -1.821605     -1.051704      2.838187
 AtomData:  id type       cartes_x      cartes_y      cartes_z
             1    0      -0.020043      0.021376      4.295446
             2    1      -0.014828      0.016996      2.237941
             3    1      -0.019172     -0.026105      6.281341
             4    1      -0.003544     -0.029441      0.846071
             5    1      -0.040879      0.017889      7.576024
             6    1       0.971527      0.487838      6.083948
             7    1       0.035081     -1.038425      6.171547
             8    1      -0.980486      0.572602      6.164344
             9    1       0.032570      1.094448      2.387109
            10    1       0.928189     -0.516701      2.337680
            11    1      -0.905620     -0.581025      2.413240
 Feature   selected_eqn_inds	0
END_CFG

BEGIN_CFG
 Size
    11
 Supercell
         1.821605     -1.051704      2.838187
         0.000000      2.103409      2.838187
        -1.821605     -1.051704      2.838187
 AtomData:  id type       cartes_x      cartes_y      cartes_z
             1    0       0.028794      0.017944      4.302447
             2    1       0.049468      0.040276      2.148051
             3    1      -0.045028      0.048808      6.283359
             4    1      -0.043192      0.025363      0.850402
             5    1      -0.002412     -0.002141      7.579784
             6    1       0.953096      0.558514      6.147825
             7    1       0.048516     -1.088684      6.146835
             8    1      -0.943249      0.538254      6.099528
             9    1       0.028256      1.050041      2.391222
            10    1       0.936085     -0.564968      2.337866
            11    1      -0.894390     -0.576978      2.344627
 Feature   selected_eqn_inds	0
END_CFG

BEGIN_CFG
 Size
    11
 Supercell
         1.821605     -1.051704      2.838187
         0.000000      2.103409      2.838187
        -1.821605     -1.051704      2.838187
 AtomData:  id type       cartes_x      cartes_y      cartes_z
             1    0       0.020039      0.016586      4.210861
             2    1       0.022945     -0.042512      2.222585
             3    1      -0.045838     -0.014243      6.311809
             4    1       0.007181     -0.018352      0.873756
             5    1      -0.029693     -0.041189      7.655428
             6    1       0.907237      0.538336      6.127146
             7    1       0.039106     -1.098030      6.118522
             8    1      -0.942263      0.581024      6.090713
             9    1       0.026741      1.044761      2.437425
            10    1       0.882967     -0.505719      2.393230
            11    1      -0.902318     -0.506777      2.387796
 Feature   selected_eqn_inds	0
END_CFG

BEGIN_CFG
 Size
    11
 Supercell
         1.821605     -1.051704      2.838187
         0.000000      2.103409      2.838187
        -1.821605     -1.051704      2.838187
 AtomData:  id type       cartes_x      cartes_y      cartes_z
             1    0       0.048846      0.047254      4.275206
             2    1       0.030748      0.002580      2.238458
             3    1      -0.031488      0.032286      6.350436
             4    1      -0.042940     -0.042269      0.842368
             5    1      -0.044067     -0.031988      7.643738
             6    1       0.899017      0.513649      6.168883
             7    1       0.003673     -1.081832      6.140848
             8    1      -0.973029      0.520967      6.139295
             9    1       0.039940      1.069696      2.421712
            10    1       0.887881     -0.535407      2.404485
            11    1      -0.906769     -0.499760      2.392484
 Feature   selected_eqn_inds	0
END_CFG

BEGIN_CFG
 Size
    11
 Supercell
         1.821605     -1.051704      2.838187
         0.000000      2.103409      2.838187
        -1.821605     -1.051704      2.838187
 AtomData:  id type       cartes_x      cartes_y      cartes_z
             1    0      -0.002441     -0.024632      4.290602
             2    1       0.046988      0.042052      2.225418
             3    1      -0.021513      0.020204      6.357291
             4    1       0.025754      0.042319      0.842681
             5    1       0.042572      0.005511      7.577165
             6    1       0.948160      0.579843      6.165803
             7    1      -0.010413     -1.053714      6.167521
             8    1      -0.887579      0.516429      6.102713
             9    1      -0.014545      1.116805      2.421721
            10    1       0.902703     -0.516107      2.424250
            11    1      -0.970352     -0.505498      2.366102
 Feature   selected_eqn_inds	0
END_CFG

BEGIN_CFG
 Size
    11
 Supercell
         1.821605     -1.051704      2.838187
         0.000000      2.103409      2.838187
        -1.821605     -1.051704      2.838187
 AtomData:  id type       cartes_x      cartes_y      cartes_z
             1    0       0.007978      0.021839      4.282332
             2    1       0.049645     -0.023523      2.227545
             3    1      -0.016909      0.020618      6.279928
             4    1       0.026733     -0.048098      0.940529
             5    1      -0.007675     -0.047006      7.601854
             6    1       0.959227      0.534295      6.148125
             7    1       0.006039     -1.113435      6.156134
             8    1      -0.974133      0.566626      6.174481
             9    1      -0.032415      1.061611      2.362685
            10    1       0.972741     -0.504547      2.409249
            11    1      -0.963562     -0.553879      2.338743
 Feature   selected_eqn_inds	0
END_CFG

BEGIN_CFG
 Size
    11
 Supercell
         1.821605     -1.051704      2.838187
         0.000000      2.103409      2.838187
        -1.821605     -1.051704      2.838187
 AtomData:  id type       cartes_x      cartes_y      cartes_z
             1    0       0.039490      0.041844      4.307162
             2    1       0.003928     -0.008892      2.191681
             3    1      -0.033086     -0.035425      6.360602
             4    1       0.032224      0.021998      0.924005
             5    1      -0.001687      0.014880      7.637537
             6    1       0.905660      0.511798      6.173198
             7    1       0.006316     -1.124237      6.162767
             8    1      -0.976922      0.533683      6.103074
             9    1      -0.048666      1.049798      2.381695
            10    1       0.886431     -0.576244      2.422161
            11    1      -0.964682     -0.509150      2.400789
 Feature   selected_eqn_inds	0
END_CFG

BEGIN_CFG
 Size
    11
 Supercell
         1.821605     -1.051704      2.838187
         0.000000      2.103409      2.838187
        -1.821605     -1.051704      2.838187
 AtomData:  id type       cartes_x      cartes_y      cartes_z
             1    0      -0.024471      0.034506      4.267768
             2    1      -0.038668      0.041140      2.153292
             3    1       0.048259     -0.048664      6.283463
             4    1       0.034178     -0.008779      0.910236
             5    1      -0.035662      0.020260      7.655386
             6    1       0.905317      0.585118      6.106043
             7    1       0.040931     -1.112392      6.145514
             8    1      -0.896779      0.568942      6.086700
             9    1       0.008672      1.074201      2.346007
            10    1       0.890961     -0.517529      2.347160
            11    1      -0.887846     -0.558621      2.362572
 Feature   selected_eqn_inds	0
END_CFG

BEGIN_CFG
 Size
    11
 Supercell
         1.821605     -1.051704      2.838187
         0.000000      2.103409      2.838187
        -1.821605     -1.051704      2.838187
 AtomData:  id type       cartes_x      cartes_y      cartes_z
             1    0      -0.022554      0.022011      4.207900
             2    1       0.012973     -0.048721      2.222509
             3    1       0.030364      0.034177      6.289863
             4    1      -0.042533     -0.033939      0.892108
             5    1       0.028311     -0.047215      7.653682
             6    1       0.955141      0.532923      6.122297
             7    1      -0.003568     -1.085903      6.092661
             8    1      -0.942100      0.579021      6.095360
             9    1       0.035274      1.071927      2.430059
            10    1       0.943276     -0.566712      2.389597
            11    1      -0.965523     -0.538313      2.435871
 Feature   selected_eqn_inds	0
END_CFG

BEGIN_CFG
 Size
    11
 Supercell
         1.821605     -1.051704      2.838187
         0.000000      2.103409      2.838187
        -1.821605     -1.051704      2.838187
 AtomData:  id type       cartes_x      cartes_y      cartes_z
             1    0       0.021260      0.016000      4.213382
             2    1       0.015609     -0.013606      2.221960
             3    1      -0.043843     -0.007138      6.365263
             4    1      -0.010603     -0.011895      0.862712
             5    1      -0.039939     -0.040752      7.585935
             6    1       0.926359      0.583338      6.099221
             7    1      -0.030329     -1.087455      6.150030
             8    1      -0.926334      0.512431      6.138916
             9    1      -0.017781      1.078010      2.377579
            10    1       0.974009     -0.586344      2.361012
            11    1      -0.931856     -0.495031      2.341878
 Feature   selected_eqn_inds	0
END_CFG

BEGIN_CFG
 Size
    11
 Supercell
         1.821605     -1.051704      2.838187
         0.000000      2.103409      2.838187
        -1.821605     -1.051704      2.838187
 AtomData:  id type       cartes_x      cartes_y      cartes_z
             1    0       0.027616     -0.017966      4.276401
             2    1       0.031168     -0.036349      2.155074
             3    1      -0.033171     -0.018520      6.312511
             4    1       0.003406     -0.028924      0.936054
             5    1       0.008235     -0.049595      7.667416
             6    1       0.930341      0.509319      6.127384
             7    1      -0.029987     -1.033323      6.093041
             8    1      -0.897403      0.571818      6.163665
             9    1      -0.040666      1.117584      2.352474
            10    1       0.954614     -0.545185      2.342535
            11    1      -0.965125     -0.555963      2.373531
 Feature   selected_eqn_inds	0
END_CFG

BEGIN_CFG
 Size
    11
 Supercell
         1.821605     -1.051704      2.838187
         0.000000      2.103409      2.838187
        -1.821605     -1.051704      2.838187
 AtomData:  id type       cartes_x      cartes_y      cartes_z
             1    0      -0.002776     -0.009142      4.290959
             2    1      -0.026397     -0.036545      2.155766
             3    1      -0.012271     -0.038069      6.360511
             4    1      -0.013630     -0.037265      0.845160
             5    1       0.002882      0.033364      7.669705
             6    1       0.923056      0.529898      6.151961
             7    1       0.037630     -1.094952      6.173839
             8    1      -0.883832      0.518592      6.103788
             9    1      -0.043715      1.103118      2.347549
            10    1       0.951333     -0.525118      2.419379
            11    1      -0.881068     -0.494083      2.365739
 Feature   selected_eqn_inds	0
END_CFG

BEGIN_CFG
 Size
    11
 Supercell
         1.821605     -1.051704      2.838187
         0.000000      2.103409      2.838187
        -1.821605     -1.051704      2.838187
 AtomData:  id type       cartes_x      cartes_y      cartes_z
             1    0      -0.037642      0.021953      4.210260
             2    1       0.020781     -0.045245      2.219026
             3    1      -0.015694     -0.018162      6.324437
             4    1       0.020829     -0.040543      0.888403
             5    1      -0.021452      0.029719      7.629471
             6    1       0.891515      0.546922      6.141289
             7    1      -0.031827     -1.039661      6.176074
             8    1      -0.892488      0.545876      6.130128
             9    1      -0.027503      1.086713      2.435403
            10    1       0.901397     -0.517419      2.433134
            11    1      -0.968887     -0.509618      2.377880
 Feature   selected_eqn_inds	0
END_CFG

BEGIN_CFG
 Size
    11
 Supercell
         1.821605     -1.051704      2.838187
         0.000000      2.103409      2.838187
        -1.821605     -1.051704      2.838187
 AtomData:  id type       cartes_x      cartes_y      cartes_z
             1    0      -0.027555     -0.045266      4.253566
             2    1       0.042455      0.024458      2.188064
             3    1      -0.012235      0.047661      6.361215
             4    1       0.047441     -0.035146      0.937964
             5    1       0.031065      0.015684      7.580538
             6    1       0.929189      0.500843      6.160611
             7    1       0.013552     -1.123792      6.146483
             8    1      -0.881710      0.497646      6.175233
             9    1       0.045454      1.100385      2.396676
            10    1       0.955692     -0.489428      2.352360
            11    1      -0.903898     -0.578909      2.402591
 Feature   selected_eqn_inds	0
END_CFG

BEGIN_CFG
 Size
    11
 Supercell
         1.821605     -1.051704      2.838187
         0.000000      2.103409      2.838187
        -1.821605     -1.051704      2.838187
 AtomData:  id type       cartes_x      cartes_y      cartes_z
             1    0      -0.031581     -0.031647      4.209388
             2    1       0.043838     -0.001300      2.170256
             3    1      -0.043652     -0.022378      6.314607
             4    1       0.007839      0.044584      0.933496
             5    1      -0.034100     -0.016610      7.618007
             6    1       0.974480      0.530293      6.170249
             7    1       0.033898     -1.090837      6.142236
             8    1      -0.972903      0.574031      6.157940
             9    1       0.031498      1.029791      2.378688
            10    1       0.943302     -0.498509      2.419686
            11    1      -0.908021     -0.492480      2.347976
 Feature   selected_eqn_inds	0
END_CFG

BEGIN_CFG
 Size
    11
 Supercell
         1.821605     -1.051704      2.838187
         0.000000      2.103409      2.838187
        -1.821605     -1.051704      2.838187
 AtomData:  id type       cartes_x      cartes_y      cartes_z
             1    0      -0.023273     -0.040824      4.292554
             2    1       0.044882     -0.045298      2.148138
             3    1      -0.036415      0.038807      6.346129
             4    1       0.027892      0.025745      0.908409
             5    1      -0.023446     -0.023550      7.617431
             6    1       0.949703      0.564181      6.126946
             7    1       0.016600     -1.068512      6.143546
             8    1      -0.907554      0.573937      6.154205
             9    1       0.024837      1.119675      2.423085
            10    1       0.946346     -0.497777      2.342573
            11    1      -0.969739     -0.527156      2.428511
 Feature   selected_eqn_inds	0
END_CFG

BEGIN_CFG
 Size
    11
 Supercell
         1.821605     -1.051704      2.838187
         0.000000      2.103409      2.838187
        -1.821605     -1.051704      2.838187
 AtomData:  id type       cartes_x      cartes_y      cartes_z
             1    0       0.025364     -0.045698      4.247683
             2    1       0.040836      0.032016      2.195820
             3    1      -0.011117      0.009083      6.319125
             4    1       0.032195      0.026022      0.885578
             5    1       0.016052     -0.040001      7.673316
             6    1       0.946338      0.532185      6.166756
             7    1       0.042954     -1.099013      6.093544
             8    1      -0.973588      0.568213      6.142828
             9    1       0.006524      1.029796      2.422911
            10    1       0.980253     -0.553697      2.402600
            11    1      -0.979220     -0.568951      2.405371
 Feature   selected_eqn_inds	0
END_CFG

BEGIN_CFG
 Size
    11
 Supercell
         1.821605     -1.051704      2.838187
         0.000000      2.103409      2.838187
        -1.821605     -1.051704      2.838187
 AtomData:  id type       cartes_x      cartes_y      cartes_z
             1    0       0.030833     -0.035089      4.223769
             2    1       0.042732      0.044352      2.217454
             3    1       0.042054      0.045188      6.354514
             4    1       0.031458      0.004598      0.866534
             5    1      -0.011222     -0.049799      7.671126
             6    1       0.971899      0.516490      6.134535
             7    1      -0.035161     -1.035223      6.129428
             8    1      -0.965602      0.516019      6.146944
             9    1       0.024083      1.107858      2.340142
            10    1       0.979283     -0.577898      2.342065
            11    1      -0.928940     -0.572815      2.340315
 Feature   selected_eqn_inds	0
END_CFG

BEGIN_CFG
 Size
    11
 Supercell
         1.821605     -1.051704      2.838187
         0.000000      2.103409      2.838187
        -1.821605     -1.051704      2.838187
 AtomData:  id type       cartes_x      cartes_y      cartes_z
             1    0      -0.016589     -0.025893      4.280703
             2    1      -0.038259     -0.021338      2.165759
             3    1       0.024180     -0.014310      6.371039
             4    1      -0.039097      0.026940      0.924010
             5    1       0.004051      0.044216      7.585368
             6    1       0.978850      0.550744      6.106023
             7    1       0.049090     -1.049999      6.107238
             8    1      -0.976395      0.546363      6.171451
             9    1       0.005869      1.026206      2.424588
            10    1       0.967995     -0.521539      2.339144
            11    1      -0.980471     -0.516458      2.374182
 Feature   selected_eqn_inds	0
END_CFG

BEGIN_CFG
 Size
    11
 Supercell
         1.821605     -1.051704      2.838187
         0.000000      2.103409      2.838187
        -1.821605     -1.051704      2.838187
 AtomData:  id type       cartes_x      cartes_y      cartes_z
             1    0       0.037319     -0.029708      4.208188
             2    1       0.043860     -0.007063      2.206259
             3    1      -0.024030      0.048017      6.357615
             4    1      -0.005991      0.028573      0.925770
             5    1      -0.011374     -0.008897      7.648371
             6    1       0.897537      0.529488      6.160224
             7    1       0.006046     -1.033846      6.113091
             8    1      -0.970402      0.553255      6.087605
             9    1       0.008447      1.092198      2.395405
            10    1       0.887819     -0.546544      2.383180
            11    1      -0.922966     -0.537525      2.337833
 Feature   selected_eqn_inds	0
END_CFG

BEGIN_CFG
 Size
    11
 Supercell
         1.821605     -1.051704      2.838187
         0.000000      2.103409      2.838187
        -1.821605     -1.051704      2.838187
 AtomData:  id type       cartes_x      cartes_y      cartes_z
             1    0       0.042974      0.012909      4.270245
             2    1      -0.037195     -0.035454      2.214492
             3    1      -0.043603     -0.000769      6.329732
             4    1       0.011676      0.039200      0.864322
             5    1       0.031102     -0.032966      7.595745
             6    1       0.881879      0.490735      6.117534
             7    1      -0.049348     -1.026838      6.092512
             8    1      -0.952166      0.538725      6.170387
             9    1      -0.045808      1.037153      2.422567
            10    1       0.942647     -0.487446      2.386420
            11    1      -0.934465     -0.587249      2.348215
 Feature   selected_eqn_inds	0
END_CFG

BEGIN_CFG
 Size
    11
 Supercell
         1.821605     -1.051704      2.838187
         0.000000      2.103409      2.838187
        -1.821605     -1.051704      2.838187
 AtomData:  id type       cartes_x      cartes_y      cartes_z
             1    0       0.049363      0.049200      4.260343
             2    1      -0.018050      0.015232      2.186398
             3    1       0.030342     -0.039867      6.357328
             4    1       0.000646      0.005272      0.893782
             5    1       0.005314      0.022818      7.658452
             6    1       0.891199      0.511032      6.086834
             7    1      -0.038065     -1.080054      6.138791
             8    1      -0.963090      0.503682      6.079006
             9    1       0.016955      1.066922      2.418316
            10    1       0.899238     -0.559847      2.410827
            11    1      -0.920001     -0.537165      2.370535
 Feature   selected_eqn_inds	0
END_CFG

BEGIN_CFG
 Size
    11
 Supercell
         1.821605     -1.051704      2.838187
         0.000000      2.103409      2.838187
        -1.821605     -1.051704      2.838187
 AtomData:  id type       cartes_x      cartes_y      cartes_z
             1    0       0.022391      0.036863      4.245668
             2    1       0.011892      0.013526      2.240983
             3    1      -0.034119     -0.047278      6.293070
             4    1       0.037216      0.048715      0.844793
             5    1       0.046530     -0.001036      7.667813
             6    1       0.929728      0.493196      6.175264
             7    1       0.020261     -1.037337      6.174739
             8    1      -0.912063      0.567865      6.082064
             9    1       0.030673      1.042435      2.353250
            10    1       0.909342     -0.491696      2.390933
            11    1      -0.895763     -0.489058      2.416008
 Feature   selected_eqn_inds	0