BEGIN_CFG
 Size
    11
 Supercell
         1.821605     -1.051704      2.838187
         0.000000      2.103409      2.838187
        -1.821605     -1.051704      2.838187
 AtomData:  id type       cartes_x      cartes_y      cartes_z
             1    0       0.000000      0.000000      4.257281
             2    1      -0.000000      0.000000      2.192877
             3    1      -0.000000     -0.000000      6.321684
             4    1       0.000000      0.000000      0.890919
             5    1      -0.000000     -0.000000      7.623642
             6    1       0.930740      0.537363      6.126909
             7    1      -0.000000     -1.074726      6.126909
             8    1      -0.930740      0.537363      6.126909
             9    1       0.000000      1.074726      2.387652
            10    1       0.930740     -0.537363      2.387652
            11    1      -0.930740     -0.537363      2.387652
 Feature   selected_eqn_inds	0
END_CFG

BEGIN_CFG
 Size
    11
 Supercell
         1.821605     -1.051704      2.838187
         0.000000      2.103409      2.838187
        -1.821605     -1.051704      2.838187
 AtomData:  id type       cartes_x      cartes_y      cartes_z
             1    0       0.004804      0.017254      4.230472
             2    1       0.005214      0.018271      2.205521
             3    1       0.009430      0.038813      6.277357
             4    1       0.039858      0.008420      0.846526
             5    1       0.040197     -0.017286      7.628158
             6    1       0.906598      0.568289      6.091523
             7    1       0.015917     -1.046630      6.126443
             8    1      -0.920477      0.561128      6.086252
             9    1       0.036797      1.060295      2.412400
            10    1       0.970208     -0.512726      2.427968
            11    1      -0.905060     -0.491351      2.424988
 Feature   selected_eqn_inds	0
END_CFG

BEGIN_CFG
 Size
    11
 Supercell
         1.821605     -1.051704      2.838187
         0.000000      2.103409      2.838187
        -1.821605     -1.051704      2.838187
 AtomData:  id type       cartes_x      cartes_y      cartes_z
             1    0      -0.017153      0.037578      4.251415
             2    1      -0.006470      0.023855      2.148496
             3    1      -0.035130     -0.019847      6.353336
             4    1      -0.031440      0.031317      0.901972
             5    1      -0.001346     -0.031541      7.620924
             6    1       0.930453      0.554186      6.136479
             7    1       0.009335     -1.087767      6.130271
             8    1      -0.975590      0.574641      6.168583
             9    1      -0.035205      1.113064      2.418722
            10    1       0.946114     -0.541421      2.354334
            11    1      -0.975167     -0.557938      2.370863
 Feature   selected_eqn_inds	0
END_CFG

BEGIN_CFG
 Size
    11
 Supercell
         1.821605     -1.051704      2.838187
         0.000000      2.103409      2.838187
        -1.821605     -1.051704      2.838187
 AtomData:  id type       cartes_x      cartes_y      cartes_z
             1    0      -0.045862      0.037898      4.272039
             2    1       0.000671     -0.010996      2.219949
             3    1      -0.032080     -0.015902      6.341070
             4    1      -0.000757     -0.047717      0.853195
             5    1      -0.008676      0.012827      7.667945
             6    1       0.976593      0.492967      6.149845
             7    1      -0.009255     -1.027532      6.099244
             8    1      -0.917003      0.546065      6.152330
             9    1      -0.037880      1.064557      2.352496
            10    1       0.979660     -0.578738      2.422048
            11    1      -0.930340     -0.509968      2.353808
 Feature   selected_eqn_inds	0
END_CFG

BEGIN_CFG
 Size
    11
 Supercell
         1.821605     -1.051704      2.838187
         0.000000      2.103409      2.838187
        -1.821605     -1.051704      2.838187
 AtomData:  id type       cartes_x      cartes_y      cartes_z
             1    0      -0.043937     -0.029204      4.301965
             2    1      -0.011094     -0.034182      2.150325
             3    1       0.004441      0.013015      6.302106
             4    1       0.018014      0.039941      0.868829
             5    1      -0.019634     -0.009165      7.586886
             6    1       0.900797      0.580532      6.115909
             7    1       0.039580     -1.037823      6.085471
             8    1      -0.939986      0.529010      6.085095
             9    1       0.041667      1.041629      2.349656
            10    1       0.969189     -0.538810      2.375407
            11    1      -0.957818     -0.530848      2.397379
 Feature   selected_eqn_inds	0
END_CFG

BEGIN_CFG
 Size
    11
 Supercell
         1.821605     -1.051704      2.838187
         0.000000      2.103409      2.838187
        -1.821605     -1.051704      2.838187
 AtomData:  id type       cartes_x      cartes_y      cartes_z
             1    0      -0.013888      0.031283      4.229014
             2    1       0.034079      0.008421      2.144427
             3    1      -0.043678      0.043192      6.360271
             4    1      -0.006978      0.031355      0.930900
             5    1       0.032234     -0.047836      7.629663
             6    1       0.943467      0.543819      6.158244
             7    1      -0.047834     -1.026108      6.175022
             8    1      -0.924838      0.528891      6.161603
             9    1       0.044497      1.045370      2.346354
            10    1       0.893237     -0.488985      2.413551
            11    1      -0.959510     -0.568505      2.411156
 Feature   selected_eqn_inds	0
END_CFG

BEGIN_CFG
 Size
    11
 Supercell
         1.821605     -1.051704      2.838187
         0.000000      2.103409      2.838187
        -1.821605     -1.051704      2.838187
 AtomData:  id type       cartes_x      cartes_y      cartes_z
             1    0       0.033104     -0.024732      4.249510
             2    1      -0.006742     -0.005392      2.143814
             3    1       0.037337      0.016993      6.285640
             4    1      -0.026243      0.000679      0.910160
             5    1      -0.029883     -0.024766      7.655351
             6    1       0.886152      0.490975      6.116001
             7    1      -0.014793     -1.063014      6.113456
             8    1      -0.922661      0.501985      6.131276
             9    1      -0.031201      1.113569      2.372266
            10    1       0.936330     -0.583540      2.360897
            11    1      -0.967551     -0.545349      2.406063
 Feature   selected_eqn_inds	0
END_CFG

BEGIN_CFG
 Size
    11
 Supercell
         1.821605     -1.051704      2.838187
         0.000000      2.103409      2.838187
        -1.821605     -1.051704      2.838187
 AtomData:  id type       cartes_x      cartes_y      cartes_z
             1    0      -0.019604      0.027906      4.286523
             2    1      -0.003199      0.045973      2.197183
             3    1       0.048259     -0.045702      6.323648
             4    1       0.047308      0.043928      0.879953
             5    1       0.041703     -0.048079      7.631194
             6    1       0.887121      0.520509      6.166612
             7    1      -0.013829     -1.097759      6.108044
             8    1      -0.883116      0.586445      6.095671
             9    1       0.005882      1.030802      2.356144
            10    1       0.961893     -0.585276      2.414311
            11    1      -0.912192     -0.501154      2.418087
 Feature   selected_eqn_inds	0
END_CFG

BEGIN_CFG
 Size
    11
 Supercell
         1.821605     -1.051704      2.838187
         0.000000      2.103409      2.838187
        -1.821605     -1.051704      2.838187
 AtomData:  id type       cartes_x      cartes_y      cartes_z
             1    0      -0.049307      0.014169      4.266122
             2    1       0.028530      0.028801      2.176505
             3    1      -0.028937      0.037933      6.360642
             4    1       0.046323     -0.031929      0.868347
             5    1       0.034640     -0.040920      7.574326
             6    1       0.969215      0.510507      6.117861
             7    1       0.009755     -1.072945      6.093052
             8    1      -0.935017      0.561451      6.167210
             9    1       0.029621      1.101837      2.340474
            10    1       0.944347     -0.581619      2.400198
            11    1      -0.957168     -0.519343      2.436123
 Feature   selected_eqn_inds	0
END_CFG

BEGIN_CFG
 Size
    11
 Supercell
         1.821605     -1.051704      2.838187
         0.000000      2.103409      2.838187
        -1.821605     -1.051704      2.838187
 AtomData:  id type       cartes_x      cartes_y      cartes_z
             1    0       0.041776     -0.042730      4.255826
             2    1       0.036651     -0.014862      2.233350
             3    1      -0.031078     -0.022220      6.359924
             4    1      -0.038683      0.048785      0.863958
             5    1      -0.006931     -0.003445      7.574226
             6    1       0.909418      0.516456      6.081477
             7    1      -0.007818     -1.048519      6.079300
             8    1      -0.968521      0.505389      6.108196
             9    1      -0.031171      1.090174      2.355820
            10    1       0.963905     -0.489426      2.408387
            11    1      -0.939505     -0.493305      2.378911
 Feature   selected_eqn_inds	0
END_CFG

BEGIN_CFG
 Size
    11
 Supercell
         1.821605     -1.051704      2.838187
         0.000000      2.103409      2.838187
        -1.821605     -1.051704      2.838187
 AtomData:  id type       cartes_x      cartes_y      cartes_z
             1    0       0.044899     -0.047124      4.211995
             2    1       0.026561     -0.017626      2.242262
             3    1       0.012045      0.013997      6.289494
             4    1      -0.016800     -0.035228      0.910602
             5    1      -0.023690     -0.025872      7.599508
             6    1       0.960504      0.562158      6.156926
             7    1      -0.038190     -1.025081      6.085035
             8    1      -0.958321      0.510398      6.108709
             9    1      -0.049601      1.088976      2.363926
            10    1       0.887507     -0.546565      2.425423
            11    1      -0.949131     -0.587282      2.389052
 Feature   selected_eqn_inds	0
END_CFG

BEGIN_CFG
 Size
    11
 Supercell
         1.821605     -1.051704      2.838187
         0.000000      2.103409      2.838187
        -1.821605     -1.051704      2.838187
 AtomData:  id type       cartes_x      cartes_y      cartes_z
             1    0       0.011834     -0.017266      4.234893
             2    1      -0.024484     -0.034725      2.227224
             3    1      -0.047678      0.009144      6.340677
             4    1      -0.045747      0.031420      0.858887
             5    1      -0.043058     -0.042783      7.592898
             6    1       0.903808      0.562173      6.087185
             7    1      -0.020889     -1.114432      6.157607
             8    1      -0.887390      0.535061      6.168697
             9    1      -0.028814      1.113374      2.393611
            10    1       0.916201     -0.582271      2.352559
            11    1      -0.882288     -0.536286      2.354387
 Feature   selected_eqn_inds	0
END_CFG

BEGIN_CFG
 Size
    11
 Supercell
         1.821605     -1.051704      2.838187
         0.000000      2.103409      2.838187
        -1.821605     -1.051704      2.838187
 AtomData:  id type       cartes_x      cartes_y      cartes_z
             1    0       0.006610      0.008777      4.236148
             2    1      -0.025483     -0.024221      2.185087
             3    1       0.015150      0.017311      6.305508
             4    1      -0.015448     -0.028279      0.885806
             5    1       0.045848     -0.018992      7.579830
             6    1       0.933700      0.487725      6.169714
             7    1      -0.019371     -1.114379      6.169750
             8    1      -0.893616      0.488392      6.154338
             9    1      -0.028992      1.040992      2.352896
            10    1       0.903834     -0.495235      2.353159
            11    1      -0.976314     -0.540522      2.338946
 Feature   selected_eqn_inds	0
END_CFG

BEGIN_CFG
 Size
    11
 Supercell
         1.821605     -1.051704      2.838187
         0.000000      2.103409      2.838187
        -1.821605     -1.051704      2.838187
 AtomData:  id type       cartes_x      cartes_y      cartes_z
             1    0      -0.017580     -0.009425      4.268118
             2    1      -0.025515      0.021836      2.241678
             3    1       0.034614      0.008219      6.330820
             4    1      -0.036825      0.017199      0.936371
             5    1       0.016730     -0.042895      7.582306
             6    1       0.978928      0.555986      6.166364
             7    1      -0.025809     -1.071385      6.131147
             8    1      -0.949638      0.529788      6.092035
             9    1      -0.041186      1.112470      2.420762
            10    1       0.976949     -0.508515      2.432731
            11    1      -0.977968     -0.512007      2.342631
 Feature   selected_eqn_inds	0
END_CFG

BEGIN_CFG
 Size
    11
 Supercell
         1.821605     -1.051704      2.838187
         0.000000      2.103409      2.838187
        -1.821605     -1.051704      2.838187
 AtomData:  id type       cartes_x      cartes_y      cartes_z
             1    0      -0.017683     -0.049651      4.225227
             2    1      -0.022146      0.037236      2.168905
             3    1      -0.020732     -0.021216      6.317442
             4    1      -0.033232     -0.025943      0.848749
             5    1      -0.018132     -0.045666      7.634834
             6    1       0.890910      0.586783      6.142647
             7    1       0.041044     -1.089323      6.131356
             8    1      -0.901075      0.579484      6.155105
             9    1       0.000671      1.115550      2.406676
            10    1       0.968005     -0.516056      2.374795
            11    1      -0.904950     -0.525188      2.341843
 Feature   selected_eqn_inds	0
END_CFG

BEGIN_CFG
 Size
    11
 Supercell
         1.821605     -1.051704      2.838187
         0.000000      2.103409      2.838187
        -1.821605     -1.051704      2.838187
 AtomData:  id type       cartes_x      cartes_y      cartes_z
             1    0      -0.024938      0.000696      4.293051
             2    1      -0.002543     -0.004555      2.143864
             3    1      -0.010068     -0.043120      6.332358
             4    1      -0.030399     -0.028554      0.847681
             5    1       0.032921     -0.008134      7.673502
             6    1       0.964572      0.579489      6.170746
             7    1      -0.042172     -1.106348      6.171936
             8    1      -0.912535      0.584470      6.155418
             9    1       0.020747      1.117166      2.341454
            10    1       0.964953     -0.508535      2.404355
            11    1      -0.936702     -0.525147      2.350896
 Feature   selected_eqn_inds	0
END_CFG

BEGIN_CFG
 Size
    11
 Supercell
         1.821605     -1.051704      2.838187
         0.000000      2.103409      2.838187
        -1.821605     -1.051704      2.838187
 AtomData:  id type       cartes_x      cartes_y      cartes_z
             1    0      -0.030195     -0.018751      4.220560
             2    1      -0.035711      0.016118      2.180270
             3    1       0.018784      0.048783      6.281145
             4    1       0.036602     -0.042837      0.940110
             5    1       0.046407     -0.019774      7.632484
             6    1       0.939733      0.587192      6.084185
             7    1       0.001606     -1.106147      6.175464
             8    1      -0.952544      0.532993      6.088752
             9    1       0.035111      1.056051      2.390994
            10    1       0.926065     -0.581914      2.356217
            11    1      -0.901516     -0.544711      2.346072
 Feature   selected_eqn_inds	0
END_CFG

BEGIN_CFG
 Size
    11
 Supercell
         1.821605     -1.051704      2.838187
         0.000000      2.103409      2.838187
        -1.821605     -1.051704      2.838187
 AtomData:  id type       cartes_x      cartes_y      cartes_z
             1    0      -0.049482      0.036725      4.221716
             2    1       0.044092     -0.032317      2.217594
             3    1       0.040974     -0.020533      6.363533
             4    1      -0.016817     -0.012914      0.913090
             5    1      -0.023231      0.033549      7.620583
             6    1       0.903147      0.561091      6.150503
             7    1       0.019848     -1.119263      6.099171
             8    1      -0.958374      0.586538      6.120174
             9    1      -0.018779      1.115341      2.400296
            10    1       0.901231     -0.545455      2.425348
            11    1      -0.952313     -0.498207      2.392905
 Feature   selected_eqn_inds	0
END_CFG

BEGIN_CFG
 Size
    11
 Supercell
         1.821605     -1.051704      2.838187
         0.000000      2.103409      2.838187
        -1.821605     -1.051704      2.838187
 AtomData:  id type       cartes_x      cartes_y      cartes_z
             1    0       0.047792      0.044374      4.216412
             2    1       0.041799      0.045661      2.186384
             3    1      -0.048792      0.028288      6.275437
             4    1       0.032076     -0.001200      0.867189
             5    1      -0.040735     -0.021907      7.642774
             6    1       0.924785      0.550540      6.101888
             7    1      -0.006291     -1.108806      6.146854
             8    1      -0.958627      0.494981      6.150043
             9    1       0.023280      1.122070      2.393496
            10    1       0.966355     -0.489327      2.427067
            11    1      -0.947582     -0.498855      2.401384
 Feature   selected_eqn_inds	0
END_CFG

BEGIN_CFG
 Size
    11
 Supercell
         1.821605     -1.051704      2.838187
         0.000000      2.103409      2.838187
        -1.821605     -1.051704      2.838187
 AtomData:  id type       cartes_x      cartes_y      cartes_z
             1    0       0.017223     -0.020330      4.260278
             2    1      -0.000081      0.045920      2.226414
             3    1       0.016894     -0.044788      6.335801
             4    1       0.041219     -0.015629      0.915202
             5    1      -0.047266      0.009721      7.662557
             6    1       0.966099      0.567188      6.109661
             7    1      -0.040347     -1.122351      6.119970
             8    1      -0.950386      0.557661      6.167427
             9    1       0.041134      1.095757      2.351866
            10    1       0.883854     -0.536690      2.363932
            11    1      -0.892488     -0.517318      2.413130
 Feature   selected_eqn_inds	0
END_CFG

BEGIN_CFG
 Size
    11
 Supercell
         1.821605     -1.051704      2.838187
         0.000000      2.103409      2.838187
        -1.821605     -1.051704      2.838187
 AtomData:  id type       cartes_x      cartes_y      cartes_z
             1    0       0.028116      0.046732      4.224241
             2    1      -0.043236      0.040643      2.199264
             3    1       0.009292     -0.002619      6.294524
             4    1       0.036399     -0.012215      0.895692
             5    1       0.001161     -0.048129      7.585339
             6    1       0.954622      0.525120      6.085294
             7    1      -0.015782     -1.046771      6.092301
             8    1      -0.905941      0.574847      6.093312
             9    1      -0.006538      1.030942      2.434655
            10    1       0.896643     -0.551470      2.395080
            11    1      -0.880933     -0.533229      2.413807
 Feature   selected_eqn_inds	0
END_CFG

BEGIN_CFG
 Size
    11
 Supercell
         1.821605     -1.051704      2.838187
         0.000000      2.103409      2.838187
        -1.821605     -1.051704      2.838187
 AtomData:  id type       cartes_x      cartes_y      cartes_z
             1    0      -0.005799     -0.019032      4.282644
             2    1       0.032547      0.040164      2.240173
             3    1      -0.013515      0.040985      6.275794
             4    1      -0.046525     -0.005912      0.900621
             5    1       0.029026     -0.035907      7.630626
             6    1       0.912990      0.546003      6.129759
             7    1       0.042554     -1.104158      6.102630
             8    1      -0.941748      0.558160      6.146170
             9    1       0.008172      1.101228      2.361995
            10    1       0.979247     -0.500754      2.409104
            11    1      -0.949666     -0.538680      2.428692
 Feature   selected_eqn_inds	0
END_CFG

BEGIN_CFG
 Size
    11
 Supercell
         1.821605     -1.051704      2.838187
         0.000000      2.103409      2.838187
        -1.821605     -1.051704      2.838187
 AtomData:  id type       cartes_x      cartes_y      cartes_z
             1    0      -0.049276     -0.042438      4.212857
             2    1       0.023532     -0.048629      2.182835
             3    1       0.005692      0.033248      6.305290
             4    1      -0.015976      0.032148      0.894061
             5    1       0.000775      0.041436      7.612778
             6    1       0.901938      0.490659      6.081099
             7    1       0.019087     -1.104417      6.141035
             8    1      -0.921215      0.579258      6.150291
             9    1      -0.023415      1.055333      2.383780
            10    1       0.936610     -0.572396      2.366415
            11    1      -0.888567     -0.578800      2.426763
 Feature   selected_eqn_inds	0
END_CFG

BEGIN_CFG
 Size
    11
 Supercell
         1.821605     -1.051704      2.838187
         0.000000      2.103409      2.838187
        -1.821605     -1.051704      2.838187
 AtomData:  id type       cartes_x      cartes_y      cartes_z
             1    0       0.029818      0.048223      4.304439
             2    1       0.035900     -0.040502      2.211704
             3    1       0.046885      0.000322      6.353637
             4    1      -0.039011     -0.001723      0.914586
             5    1      -0.035363     -0.014320      7.656363
             6    1       0.922151      0.542757      6.156206
             7    1       0.002324     -1.108516      6.157739
             8    1      -0.919381      0.492240      6.168457
             9    1      -0.008170      1.117609      2.347653
            10    1       0.971722     -0.585801      2.403298
            11    1      -0.973189     -0.566640      2.357191
 Feature   selected_eqn_inds	0
END_CFG

BEGIN_CFG
 Size
    11
 Supercell
         1.821605     -1.051704      2.838187
         0.000000      2.103409      2.838187
        -1.821605     -1.051704      2.838187
 AtomData:  id type       cartes_x      cartes_y      cartes_z
             1    0      -0.002078     -0.014484      4.219676
             2    1      -0.033324     -0.029936      2.144408
             3    1      -0.030771     -0.038376      6.347353
             4    1       0.026802      0.030539      0.888400
             5    1      -0.017758      0.036456      7.667049
             6    1       0.890723      0.503026      6.097979
             7    1      -0.015308     -1.033951      6.093148
             8    1      -0.961161      0.576174      6.085847
             9    1      -0.003905      1.033212      2.435167
            10    1       0.934812     -0.488717      2.355411
            11    1      -0.888668     -0.572731      2.436570
 Feature   selected_eqn_inds	0
END_CFG

BEGIN_CFG
 Size
    11
 Supercell
         1.821605     -1.051704      2.838187
         0.000000      2.103409      2.838187
        -1.821605     -1.051704      2.838187
 AtomData:  id type       cartes_x      cartes_y      cartes_z
             1    0      -0.014739      0.049669      4.211271
             2    1      -0.039371      0.049445      2.236810
             3    1      -0.006651     -0.043083      6.334660
             4    1      -0.040668     -0.010874      0.937127
             5    1       0.049914     -0.042351      7.626924
             6    1       0.955778      0.517514      6.144448
             7    1       0.011723     -1.052828      6.091034
             8    1      -0.908806      0.581452      6.118939
             9    1      -0.039718      1.102808      2.392248
            10    1       0.950505     -0.521261      2.340201
            11    1      -0.889185     -0.510702      2.415690
 Feature   selected_eqn_inds	0
END_CFG

BEGIN_CFG
 Size
    11
 Supercell
         1.821605     -1.051704      2.838187
         0.000000      2.103409      2.838187
        -1.821605     -1.051704      2.838187
 AtomData:  id type       cartes_x      cartes_y      cartes_z
             1    0      -0.011201      0.039817      4.277579
             2    1      -0.025926      0.000652      2.143001
             3    1      -0.010648      0.014745      6.362095
             4    1      -0.034144     -0.043428      0.920585
             5    1      -0.019806     -0.046860      7.580147
             6    1       0.885391      0.564886      6.100300
             7    1      -0.039144     -1.049920      6.156267
             8    1      -0.897602      0.579865      6.136276
             9    1       0.031006      1.057234      2.437429
            10    1       0.941177     -0.520472      2.387178
            11    1      -0.974600     -0.489620      2.391758
 Feature   selected_eqn_inds	0
END_CFG

BEGIN_CFG
 Size
    11
 Supercell
         1.821605     -1.051704      2.838187
         0.000000      2.103409      2.838187
        -1.821605     -1.051704      2.838187
 AtomData:  id type       cartes_x      cartes_y      cartes_z
             1    0      -0.013914      0.041897      4.301727
             2    1       0.016872      0.036581      2.173593
             3    1       0.039984     -0.037606      6.351408
             4    1       0.019372      0.041714      0.881251
             5    1       0.033089     -0.033916      7.650771
             6    1       0.924048      0.527815      6.082014
             7    1      -0.018586     -1.092443      6.092139
             8    1      -0.950949      0.488874      6.124420
             9    1      -0.012616      1.098469      2.359011
            10    1       0.918517     -0.504572      2.371760
            11    1      -0.966819     -0.494293      2.375994
 Feature   selected_eqn_inds	0
END_CFG

BEGIN_CFG
 Size
    11
 Supercell
         1.821605     -1.051704      2.838187
         0.000000      2.103409      2.838187
        -1.821605     -1.051704      2.838187
 AtomData:  id type       cartes_x      cartes_y      cartes_z
             1    0       0.046591      0.045597      4.216689
             2    1      -0.028599     -0.023511      2.209136
             3    1      -0.049884     -0.021062      6.311964
             4    1      -0.024416      0.046442      0.931198
             5    1      -0.014878      0.003961      7.653408
             6    1       0.923566      0.504198      6.167499
             7    1       0.045860     -1.054227      6.115974
             8    1      -0.896291      0.543968      6.169655
             9    1       0.029295      1.112123      2.418973
            10    1       0.962245     -0.545492      2.360740
            11    1      -0.944750     -0.572183      2.373327
 Feature   selected_eqn_inds	0
END_CFG

BEGIN_CFG
 Size
    11
 Supercell
         1.821605     -1.051704      2.838187
         0.000000      2.103409      2.838187
        -1.821605     -1.051704      2.838187
 AtomData:  id type       cartes_x      cartes_y      cartes_z
             1    0      -0.014907     -0.045336      4.208253
             2    1       0.030582     -0.049517      2.163665
             3    1      -0.027420      0.047100      6.363592
             4    1      -0.018931     -0.030207      0.932462
             5    1      -0.046337     -0.003412      7.584715
             6    1       0.918699      0.522200      6.096391
             7    1       0.014588     -1.078633      6.117031
             8    1      -0.929757      0.533865      6.091039
             9    1      -0.010002      1.031584      2.422333
            10    1       0.892621     -0.520148      2.381264
            11    1      -0.922011     -0.583498      2.338924
 Feature   selected_eqn_inds	0
END_CFG

BEGIN_CFG
 Size
    11
 Supercell
         1.821605     -1.051704      2.838187
         0.000000      2.103409      2.838187
        -1.821605     -1.051704      2.838187
 AtomData:  id type       cartes_x      cartes_y      cartes_z
             1    0       0.032030     -0.033195      4.213312
             2    1       0.034952      0.002793      2.224593
             3    1       0.016564      0.029492      6.353583
             4    1       0.025885     -0.014875      0.858483
             5    1      -0.032454      0.013621      7.589388
             6    1       0.897317      0.491069      6.175145
             7    1       0.015661     -1.033799      6.137819
             8    1      -0.913123      0.502467      6.165724
             9    1       0.043779      1.086810      2.420640
            10    1       0.923276     -0.550308      2.371233
            11    1      -0.932477     -0.502852      2.393509
 Feature   selected_eqn_inds	0